#test_frame
24 atoms
2 atom types
24 bonds
3 bond types
0.000000  13.486229  xlo xhi
0.000000  13.486229  ylo yhi
0.000000  13.486229  zlo zhi
0  0  0  xy xz yz

Atoms # molecular

1  1  1   9.12736402   5.57915355   5.27127043
2  1  1   7.75557686   6.95094070   5.27127043
3  1  1   5.81557686   6.95094070   5.27127043
4  1  1   4.44378971   5.57915355   5.27127043
5  1  1   4.44378971   3.63915355   5.27127043
6  1  1   5.81557686   2.26736639   5.27127043
7  1  1   7.75557686   2.26736639   5.27127043
8  1  1   9.12736402   3.63915355   5.27127043
9  1  2   10.30127966   5.81542121   3.74493506
10  1  2   11.17544091   7.13679060   2.62537040
11  1  2   7.85828910   8.86606309   5.56342865
12  1  2   7.88131924   9.81557454   3.87183247
13  1  2   5.07693125   8.36345217   4.16546122
14  1  2   3.84119831   8.38620104   2.67011960
15  1  2   2.69658104   6.35384910   5.60399959
16  1  2   2.45878118   5.24805495   4.02784270
17  1  2   2.55411368   3.51597370   4.84990215
18  1  2   2.00000000   2.68328278   6.51218488
19  1  2   4.83172392   2.38539105   6.93911442
20  1  2   6.22876261   2.41196559   8.28491407
21  1  2   8.17607237   3.16717444   3.60479841
22  1  2   8.63254201   4.15705198   2.00000000
23  1  2   10.04177330   2.00000000   4.78072857
24  1  2   11.48622922   2.86333524   3.81543102

Bonds

1  1  1  2
2  1  2  3
3  1  3  4
4  1  4  5
5  1  5  6
6  1  6  7
7  1  7  8
8  1  8  1
9  2  1  9
10  3  9  10
11  2  2  11
12  3  11  12
13  2  3  13
14  3  13  14
15  2  4  15
16  3  15  16
17  2  5  17
18  3  17  18
19  2  6  19
20  3  19  20
21  2  7  21
22  3  21  22
23  2  8  23
24  3  23  24
